+ 0.1 2 0 cbr 1000 ------- 0 2.0 1.0 0 0
- 0.1 2 0 cbr 1000 ------- 0 2.0 1.0 0 0
+ 0.1 2 0 cbr 1000 ------- 0 2.0 1.0 1 1
+ 0.1 2 0 cbr 1000 ------- 0 2.0 1.0 2 2
+ 0.1 2 0 cbr 1000 ------- 0 2.0 1.0 3 3
+ 0.1 2 0 cbr 1000 ------- 0 2.0 1.0 4 4
+ 0.1 2 0 cbr 1000 ------- 0 2.0 1.0 5 5
+ 0.1 2 0 cbr 1000 ------- 0 2.0 1.0 6 6
+ 0.1 3 0 cbr 1000 ------- 0 3.0 1.0 0 7
- 0.1 3 0 cbr 1000 ------- 0 3.0 1.0 0 7
+ 0.1 3 0 cbr 1000 ------- 0 3.0 1.0 1 8
+ 0.1 3 0 cbr 1000 ------- 0 3.0 1.0 2 9
+ 0.1 3 0 cbr 1000 ------- 0 3.0 1.0 3 10
- 0.100667 2 0 cbr 1000 ------- 0 2.0 1.0 1 1
- 0.100667 3 0 cbr 1000 ------- 0 3.0 1.0 1 8
- 0.101333 2 0 cbr 1000 ------- 0 2.0 1.0 2 2
- 0.101333 3 0 cbr 1000 ------- 0 3.0 1.0 2 9
- 0.102 2 0 cbr 1000 ------- 0 2.0 1.0 3 3
- 0.102 3 0 cbr 1000 ------- 0 3.0 1.0 3 10
- 0.102667 2 0 cbr 1000 ------- 0 2.0 1.0 4 4
- 0.103333 2 0 cbr 1000 ------- 0 2.0 1.0 5 5
- 0.104 2 0 cbr 1000 ------- 0 2.0 1.0 6 6
+ 0.153333 3 0 cbr 1000 ------- 0 3.0 1.0 4 11
- 0.153333 3 0 cbr 1000 ------- 0 3.0 1.0 4 11
+ 0.153333 3 0 cbr 1000 ------- 0 3.0 1.0 5 12
+ 0.153333 3 0 cbr 1000 ------- 0 3.0 1.0 6 13
+ 0.153333 3 0 cbr 1000 ------- 0 3.0 1.0 7 14
- 0.154 3 0 cbr 1000 ------- 0 3.0 1.0 5 12
- 0.154667 3 0 cbr 1000 ------- 0 3.0 1.0 6 13
- 0.155333 3 0 cbr 1000 ------- 0 3.0 1.0 7 14
r 0.200667 2 0 cbr 1000 ------- 0 2.0 1.0 0 0
+ 0.200667 0 1 cbr 1000 ------- 0 2.0 1.0 0 0
- 0.200667 0 1 cbr 1000 ------- 0 2.0 1.0 0 0
r 0.200667 3 0 cbr 1000 ------- 0 3.0 1.0 0 7
+ 0.200667 0 1 cbr 1000 ------- 0 3.0 1.0 0 7
r 0.201333 2 0 cbr 1000 ------- 0 2.0 1.0 1 1
+ 0.201333 0 1 cbr 1000 ------- 0 2.0 1.0 1 1
r 0.201333 3 0 cbr 1000 ------- 0 3.0 1.0 1 8
+ 0.201333 0 1 cbr 1000 ------- 0 3.0 1.0 1 8
- 0.202 0 1 cbr 1000 ------- 0 3.0 1.0 0 7
r 0.202 2 0 cbr 1000 ------- 0 2.0 1.0 2 2
+ 0.202 0 1 cbr 1000 ------- 0 2.0 1.0 2 2
r 0.202 3 0 cbr 1000 ------- 0 3.0 1.0 2 9
+ 0.202 0 1 cbr 1000 ------- 0 3.0 1.0 2 9
r 0.202667 2 0 cbr 1000 ------- 0 2.0 1.0 3 3
+ 0.202667 0 1 cbr 1000 ------- 0 2.0 1.0 3 3
r 0.202667 3 0 cbr 1000 ------- 0 3.0 1.0 3 10
+ 0.202667 0 1 cbr 1000 ------- 0 3.0 1.0 3 10
r 0.203333 2 0 cbr 1000 ------- 0 2.0 1.0 4 4
+ 0.203333 0 1 cbr 1000 ------- 0 2.0 1.0 4 4
- 0.203333 0 1 cbr 1000 ------- 0 2.0 1.0 1 1
r 0.204 2 0 cbr 1000 ------- 0 2.0 1.0 5 5
+ 0.204 0 1 cbr 1000 ------- 0 2.0 1.0 5 5
- 0.204667 0 1 cbr 1000 ------- 0 3.0 1.0 1 8
r 0.204667 2 0 cbr 1000 ------- 0 2.0 1.0 6 6
+ 0.204667 0 1 cbr 1000 ------- 0 2.0 1.0 6 6
- 0.206 0 1 cbr 1000 ------- 0 2.0 1.0 2 2
+ 0.206667 3 0 cbr 1000 ------- 0 3.0 1.0 8 15
- 0.206667 3 0 cbr 1000 ------- 0 3.0 1.0 8 15
+ 0.206667 3 0 cbr 1000 ------- 0 3.0 1.0 9 16
+ 0.206667 3 0 cbr 1000 ------- 0 3.0 1.0 10 17
+ 0.206667 3 0 cbr 1000 ------- 0 3.0 1.0 11 18
- 0.207333 0 1 cbr 1000 ------- 0 3.0 1.0 2 9
- 0.207333 3 0 cbr 1000 ------- 0 3.0 1.0 9 16
- 0.208 3 0 cbr 1000 ------- 0 3.0 1.0 10 17
- 0.208667 0 1 cbr 1000 ------- 0 2.0 1.0 3 3
- 0.208667 3 0 cbr 1000 ------- 0 3.0 1.0 11 18
- 0.21 0 1 cbr 1000 ------- 0 3.0 1.0 3 10
- 0.211333 0 1 cbr 1000 ------- 0 2.0 1.0 4 4
- 0.212667 0 1 cbr 1000 ------- 0 2.0 1.0 5 5
- 0.214 0 1 cbr 1000 ------- 0 2.0 1.0 6 6
+ 0.24 2 0 cbr 1000 ------- 0 2.0 1.0 7 19
- 0.24 2 0 cbr 1000 ------- 0 2.0 1.0 7 19
+ 0.24 2 0 cbr 1000 ------- 0 2.0 1.0 8 20
+ 0.24 2 0 cbr 1000 ------- 0 2.0 1.0 9 21
+ 0.24 2 0 cbr 1000 ------- 0 2.0 1.0 10 22
+ 0.24 2 0 cbr 1000 ------- 0 2.0 1.0 11 23
+ 0.24 2 0 cbr 1000 ------- 0 2.0 1.0 12 24
+ 0.24 2 0 cbr 1000 ------- 0 2.0 1.0 13 25
- 0.240667 2 0 cbr 1000 ------- 0 2.0 1.0 8 20
- 0.241333 2 0 cbr 1000 ------- 0 2.0 1.0 9 21
- 0.242 2 0 cbr 1000 ------- 0 2.0 1.0 10 22
- 0.242667 2 0 cbr 1000 ------- 0 2.0 1.0 11 23
- 0.243333 2 0 cbr 1000 ------- 0 2.0 1.0 12 24
- 0.244 2 0 cbr 1000 ------- 0 2.0 1.0 13 25
r 0.254 3 0 cbr 1000 ------- 0 3.0 1.0 4 11
+ 0.254 0 1 cbr 1000 ------- 0 3.0 1.0 4 11
- 0.254 0 1 cbr 1000 ------- 0 3.0 1.0 4 11
r 0.254667 3 0 cbr 1000 ------- 0 3.0 1.0 5 12
+ 0.254667 0 1 cbr 1000 ------- 0 3.0 1.0 5 12
r 0.255333 3 0 cbr 1000 ------- 0 3.0 1.0 6 13
+ 0.255333 0 1 cbr 1000 ------- 0 3.0 1.0 6 13
- 0.255333 0 1 cbr 1000 ------- 0 3.0 1.0 5 12
r 0.256 3 0 cbr 1000 ------- 0 3.0 1.0 7 14
+ 0.256 0 1 cbr 1000 ------- 0 3.0 1.0 7 14
- 0.256667 0 1 cbr 1000 ------- 0 3.0 1.0 6 13
- 0.258 0 1 cbr 1000 ------- 0 3.0 1.0 7 14
+ 0.26 3 0 cbr 1000 ------- 0 3.0 1.0 12 26
- 0.26 3 0 cbr 1000 ------- 0 3.0 1.0 12 26
+ 0.26 3 0 cbr 1000 ------- 0 3.0 1.0 13 27
+ 0.26 3 0 cbr 1000 ------- 0 3.0 1.0 14 28
+ 0.26 3 0 cbr 1000 ------- 0 3.0 1.0 15 29
- 0.260667 3 0 cbr 1000 ------- 0 3.0 1.0 13 27
- 0.261333 3 0 cbr 1000 ------- 0 3.0 1.0 14 28
- 0.262 3 0 cbr 1000 ------- 0 3.0 1.0 15 29
r 0.307333 3 0 cbr 1000 ------- 0 3.0 1.0 8 15
+ 0.307333 0 1 cbr 1000 ------- 0 3.0 1.0 8 15
- 0.307333 0 1 cbr 1000 ------- 0 3.0 1.0 8 15
r 0.308 3 0 cbr 1000 ------- 0 3.0 1.0 9 16
+ 0.308 0 1 cbr 1000 ------- 0 3.0 1.0 9 16
r 0.308667 3 0 cbr 1000 ------- 0 3.0 1.0 10 17
+ 0.308667 0 1 cbr 1000 ------- 0 3.0 1.0 10 17
- 0.308667 0 1 cbr 1000 ------- 0 3.0 1.0 9 16
r 0.309333 3 0 cbr 1000 ------- 0 3.0 1.0 11 18
+ 0.309333 0 1 cbr 1000 ------- 0 3.0 1.0 11 18
- 0.31 0 1 cbr 1000 ------- 0 3.0 1.0 10 17
- 0.311333 0 1 cbr 1000 ------- 0 3.0 1.0 11 18
+ 0.313333 3 0 cbr 1000 ------- 0 3.0 1.0 16 30
- 0.313333 3 0 cbr 1000 ------- 0 3.0 1.0 16 30
+ 0.313333 3 0 cbr 1000 ------- 0 3.0 1.0 17 31
+ 0.313333 3 0 cbr 1000 ------- 0 3.0 1.0 18 32
+ 0.313333 3 0 cbr 1000 ------- 0 3.0 1.0 19 33
- 0.314 3 0 cbr 1000 ------- 0 3.0 1.0 17 31
- 0.314667 3 0 cbr 1000 ------- 0 3.0 1.0 18 32
- 0.315333 3 0 cbr 1000 ------- 0 3.0 1.0 19 33
r 0.340667 2 0 cbr 1000 ------- 0 2.0 1.0 7 19
+ 0.340667 0 1 cbr 1000 ------- 0 2.0 1.0 7 19
- 0.340667 0 1 cbr 1000 ------- 0 2.0 1.0 7 19
r 0.341333 2 0 cbr 1000 ------- 0 2.0 1.0 8 20
+ 0.341333 0 1 cbr 1000 ------- 0 2.0 1.0 8 20
r 0.342 2 0 cbr 1000 ------- 0 2.0 1.0 9 21
+ 0.342 0 1 cbr 1000 ------- 0 2.0 1.0 9 21
- 0.342 0 1 cbr 1000 ------- 0 2.0 1.0 8 20
r 0.342667 2 0 cbr 1000 ------- 0 2.0 1.0 10 22
+ 0.342667 0 1 cbr 1000 ------- 0 2.0 1.0 10 22
r 0.343333 2 0 cbr 1000 ------- 0 2.0 1.0 11 23
+ 0.343333 0 1 cbr 1000 ------- 0 2.0 1.0 11 23
- 0.343333 0 1 cbr 1000 ------- 0 2.0 1.0 9 21
r 0.344 2 0 cbr 1000 ------- 0 2.0 1.0 12 24
+ 0.344 0 1 cbr 1000 ------- 0 2.0 1.0 12 24
r 0.344667 2 0 cbr 1000 ------- 0 2.0 1.0 13 25
+ 0.344667 0 1 cbr 1000 ------- 0 2.0 1.0 13 25
- 0.344667 0 1 cbr 1000 ------- 0 2.0 1.0 10 22
- 0.346 0 1 cbr 1000 ------- 0 2.0 1.0 11 23
- 0.347333 0 1 cbr 1000 ------- 0 2.0 1.0 12 24
- 0.348667 0 1 cbr 1000 ------- 0 2.0 1.0 13 25
r 0.360667 3 0 cbr 1000 ------- 0 3.0 1.0 12 26
+ 0.360667 0 1 cbr 1000 ------- 0 3.0 1.0 12 26
- 0.360667 0 1 cbr 1000 ------- 0 3.0 1.0 12 26
r 0.361333 3 0 cbr 1000 ------- 0 3.0 1.0 13 27
+ 0.361333 0 1 cbr 1000 ------- 0 3.0 1.0 13 27
r 0.362 3 0 cbr 1000 ------- 0 3.0 1.0 14 28
+ 0.362 0 1 cbr 1000 ------- 0 3.0 1.0 14 28
- 0.362 0 1 cbr 1000 ------- 0 3.0 1.0 13 27
r 0.362667 3 0 cbr 1000 ------- 0 3.0 1.0 15 29
+ 0.362667 0 1 cbr 1000 ------- 0 3.0 1.0 15 29
- 0.363333 0 1 cbr 1000 ------- 0 3.0 1.0 14 28
- 0.364667 0 1 cbr 1000 ------- 0 3.0 1.0 15 29
+ 0.366667 3 0 cbr 1000 ------- 0 3.0 1.0 20 34
- 0.366667 3 0 cbr 1000 ------- 0 3.0 1.0 20 34
+ 0.366667 3 0 cbr 1000 ------- 0 3.0 1.0 21 35
+ 0.366667 3 0 cbr 1000 ------- 0 3.0 1.0 22 36
+ 0.366667 3 0 cbr 1000 ------- 0 3.0 1.0 23 37
- 0.367333 3 0 cbr 1000 ------- 0 3.0 1.0 21 35
- 0.368 3 0 cbr 1000 ------- 0 3.0 1.0 22 36
- 0.368667 3 0 cbr 1000 ------- 0 3.0 1.0 23 37
+ 0.38 2 0 cbr 1000 ------- 0 2.0 1.0 14 38
- 0.38 2 0 cbr 1000 ------- 0 2.0 1.0 14 38
+ 0.38 2 0 cbr 1000 ------- 0 2.0 1.0 15 39
+ 0.38 2 0 cbr 1000 ------- 0 2.0 1.0 16 40
+ 0.38 2 0 cbr 1000 ------- 0 2.0 1.0 17 41
+ 0.38 2 0 cbr 1000 ------- 0 2.0 1.0 18 42
+ 0.38 2 0 cbr 1000 ------- 0 2.0 1.0 19 43
+ 0.38 2 0 cbr 1000 ------- 0 2.0 1.0 20 44
- 0.380667 2 0 cbr 1000 ------- 0 2.0 1.0 15 39
- 0.381333 2 0 cbr 1000 ------- 0 2.0 1.0 16 40
- 0.382 2 0 cbr 1000 ------- 0 2.0 1.0 17 41
- 0.382667 2 0 cbr 1000 ------- 0 2.0 1.0 18 42
- 0.383333 2 0 cbr 1000 ------- 0 2.0 1.0 19 43
- 0.384 2 0 cbr 1000 ------- 0 2.0 1.0 20 44
r 0.402 0 1 cbr 1000 ------- 0 2.0 1.0 0 0
r 0.403333 0 1 cbr 1000 ------- 0 3.0 1.0 0 7
r 0.404667 0 1 cbr 1000 ------- 0 2.0 1.0 1 1
r 0.406 0 1 cbr 1000 ------- 0 3.0 1.0 1 8
r 0.407333 0 1 cbr 1000 ------- 0 2.0 1.0 2 2
r 0.408667 0 1 cbr 1000 ------- 0 3.0 1.0 2 9
r 0.41 0 1 cbr 1000 ------- 0 2.0 1.0 3 3
r 0.411333 0 1 cbr 1000 ------- 0 3.0 1.0 3 10
r 0.412667 0 1 cbr 1000 ------- 0 2.0 1.0 4 4
r 0.414 0 1 cbr 1000 ------- 0 2.0 1.0 5 5
r 0.414 3 0 cbr 1000 ------- 0 3.0 1.0 16 30
+ 0.414 0 1 cbr 1000 ------- 0 3.0 1.0 16 30
- 0.414 0 1 cbr 1000 ------- 0 3.0 1.0 16 30
r 0.414667 3 0 cbr 1000 ------- 0 3.0 1.0 17 31
+ 0.414667 0 1 cbr 1000 ------- 0 3.0 1.0 17 31
r 0.415333 0 1 cbr 1000 ------- 0 2.0 1.0 6 6
r 0.415333 3 0 cbr 1000 ------- 0 3.0 1.0 18 32
+ 0.415333 0 1 cbr 1000 ------- 0 3.0 1.0 18 32
- 0.415333 0 1 cbr 1000 ------- 0 3.0 1.0 17 31
r 0.416 3 0 cbr 1000 ------- 0 3.0 1.0 19 33
+ 0.416 0 1 cbr 1000 ------- 0 3.0 1.0 19 33
- 0.416667 0 1 cbr 1000 ------- 0 3.0 1.0 18 32
- 0.418 0 1 cbr 1000 ------- 0 3.0 1.0 19 33
+ 0.42 3 0 cbr 1000 ------- 0 3.0 1.0 24 45
- 0.42 3 0 cbr 1000 ------- 0 3.0 1.0 24 45
+ 0.42 3 0 cbr 1000 ------- 0 3.0 1.0 25 46
+ 0.42 3 0 cbr 1000 ------- 0 3.0 1.0 26 47
+ 0.42 3 0 cbr 1000 ------- 0 3.0 1.0 27 48
- 0.420667 3 0 cbr 1000 ------- 0 3.0 1.0 25 46
- 0.421333 3 0 cbr 1000 ------- 0 3.0 1.0 26 47
- 0.422 3 0 cbr 1000 ------- 0 3.0 1.0 27 48
r 0.455333 0 1 cbr 1000 ------- 0 3.0 1.0 4 11
r 0.456667 0 1 cbr 1000 ------- 0 3.0 1.0 5 12
r 0.458 0 1 cbr 1000 ------- 0 3.0 1.0 6 13
r 0.459333 0 1 cbr 1000 ------- 0 3.0 1.0 7 14
r 0.467333 3 0 cbr 1000 ------- 0 3.0 1.0 20 34
+ 0.467333 0 1 cbr 1000 ------- 0 3.0 1.0 20 34
- 0.467333 0 1 cbr 1000 ------- 0 3.0 1.0 20 34
r 0.468 3 0 cbr 1000 ------- 0 3.0 1.0 21 35
+ 0.468 0 1 cbr 1000 ------- 0 3.0 1.0 21 35
r 0.468667 3 0 cbr 1000 ------- 0 3.0 1.0 22 36
+ 0.468667 0 1 cbr 1000 ------- 0 3.0 1.0 22 36
- 0.468667 0 1 cbr 1000 ------- 0 3.0 1.0 21 35
r 0.469333 3 0 cbr 1000 ------- 0 3.0 1.0 23 37
+ 0.469333 0 1 cbr 1000 ------- 0 3.0 1.0 23 37
- 0.47 0 1 cbr 1000 ------- 0 3.0 1.0 22 36
- 0.471333 0 1 cbr 1000 ------- 0 3.0 1.0 23 37
+ 0.473333 3 0 cbr 1000 ------- 0 3.0 1.0 28 49
- 0.473333 3 0 cbr 1000 ------- 0 3.0 1.0 28 49
+ 0.473333 3 0 cbr 1000 ------- 0 3.0 1.0 29 50
+ 0.473333 3 0 cbr 1000 ------- 0 3.0 1.0 30 51
+ 0.473333 3 0 cbr 1000 ------- 0 3.0 1.0 31 52
- 0.474 3 0 cbr 1000 ------- 0 3.0 1.0 29 50
- 0.474667 3 0 cbr 1000 ------- 0 3.0 1.0 30 51
- 0.475333 3 0 cbr 1000 ------- 0 3.0 1.0 31 52
r 0.480667 2 0 cbr 1000 ------- 0 2.0 1.0 14 38
+ 0.480667 0 1 cbr 1000 ------- 0 2.0 1.0 14 38
- 0.480667 0 1 cbr 1000 ------- 0 2.0 1.0 14 38
r 0.481333 2 0 cbr 1000 ------- 0 2.0 1.0 15 39
+ 0.481333 0 1 cbr 1000 ------- 0 2.0 1.0 15 39
r 0.482 2 0 cbr 1000 ------- 0 2.0 1.0 16 40
+ 0.482 0 1 cbr 1000 ------- 0 2.0 1.0 16 40
- 0.482 0 1 cbr 1000 ------- 0 2.0 1.0 15 39
r 0.482667 2 0 cbr 1000 ------- 0 2.0 1.0 17 41
+ 0.482667 0 1 cbr 1000 ------- 0 2.0 1.0 17 41
r 0.483333 2 0 cbr 1000 ------- 0 2.0 1.0 18 42
+ 0.483333 0 1 cbr 1000 ------- 0 2.0 1.0 18 42
- 0.483333 0 1 cbr 1000 ------- 0 2.0 1.0 16 40
r 0.484 2 0 cbr 1000 ------- 0 2.0 1.0 19 43
+ 0.484 0 1 cbr 1000 ------- 0 2.0 1.0 19 43
r 0.484667 2 0 cbr 1000 ------- 0 2.0 1.0 20 44
+ 0.484667 0 1 cbr 1000 ------- 0 2.0 1.0 20 44
- 0.484667 0 1 cbr 1000 ------- 0 2.0 1.0 17 41
- 0.486 0 1 cbr 1000 ------- 0 2.0 1.0 18 42
- 0.487333 0 1 cbr 1000 ------- 0 2.0 1.0 19 43
- 0.488667 0 1 cbr 1000 ------- 0 2.0 1.0 20 44
+ 0.5 4 0 cbr 1000 ------- 0 4.0 1.0 0 53
- 0.5 4 0 cbr 1000 ------- 0 4.0 1.0 0 53
+ 0.5 4 0 cbr 1000 ------- 0 4.0 1.0 1 54
+ 0.5 4 0 cbr 1000 ------- 0 4.0 1.0 2 55
+ 0.5 4 0 cbr 1000 ------- 0 4.0 1.0 3 56
+ 0.5 4 0 cbr 1000 ------- 0 4.0 1.0 4 57
+ 0.5 4 0 cbr 1000 ------- 0 4.0 1.0 5 58
+ 0.5 4 0 cbr 1000 ------- 0 4.0 1.0 6 59
+ 0.5 4 0 cbr 1000 ------- 0 4.0 1.0 7 60
+ 0.5 4 0 cbr 1000 ------- 0 4.0 1.0 8 61
+ 0.5 4 0 cbr 1000 ------- 0 4.0 1.0 9 62
+ 0.5 4 0 cbr 1000 ------- 0 4.0 1.0 10 63
+ 0.5 4 0 cbr 1000 ------- 0 4.0 1.0 11 64
+ 0.5 4 0 cbr 1000 ------- 0 4.0 1.0 12 65
+ 0.5 4 0 cbr 1000 ------- 0 4.0 1.0 13 66
+ 0.5 4 0 cbr 1000 ------- 0 4.0 1.0 14 67
+ 0.5 4 0 cbr 1000 ------- 0 4.0 1.0 15 68
+ 0.5 4 0 cbr 1000 ------- 0 4.0 1.0 16 69
+ 0.5 4 0 cbr 1000 ------- 0 4.0 1.0 17 70
+ 0.5 4 0 cbr 1000 ------- 0 4.0 1.0 18 71
+ 0.5 4 0 cbr 1000 ------- 0 4.0 1.0 19 72
+ 0.5 4 0 cbr 1000 ------- 0 4.0 1.0 20 73
+ 0.5 4 0 cbr 1000 ------- 0 4.0 1.0 21 74
+ 0.5 4 0 cbr 1000 ------- 0 4.0 1.0 22 75
+ 0.5 4 0 cbr 1000 ------- 0 4.0 1.0 23 76
- 0.500667 4 0 cbr 1000 ------- 0 4.0 1.0 1 54
- 0.501333 4 0 cbr 1000 ------- 0 4.0 1.0 2 55
- 0.502 4 0 cbr 1000 ------- 0 4.0 1.0 3 56
- 0.502667 4 0 cbr 1000 ------- 0 4.0 1.0 4 57
- 0.503333 4 0 cbr 1000 ------- 0 4.0 1.0 5 58
- 0.504 4 0 cbr 1000 ------- 0 4.0 1.0 6 59
- 0.504667 4 0 cbr 1000 ------- 0 4.0 1.0 7 60
- 0.505333 4 0 cbr 1000 ------- 0 4.0 1.0 8 61
- 0.506 4 0 cbr 1000 ------- 0 4.0 1.0 9 62
- 0.506667 4 0 cbr 1000 ------- 0 4.0 1.0 10 63
- 0.507333 4 0 cbr 1000 ------- 0 4.0 1.0 11 64
- 0.508 4 0 cbr 1000 ------- 0 4.0 1.0 12 65
r 0.508667 0 1 cbr 1000 ------- 0 3.0 1.0 8 15
- 0.508667 4 0 cbr 1000 ------- 0 4.0 1.0 13 66
- 0.509333 4 0 cbr 1000 ------- 0 4.0 1.0 14 67
r 0.51 0 1 cbr 1000 ------- 0 3.0 1.0 9 16
- 0.51 4 0 cbr 1000 ------- 0 4.0 1.0 15 68
- 0.510667 4 0 cbr 1000 ------- 0 4.0 1.0 16 69
r 0.511333 0 1 cbr 1000 ------- 0 3.0 1.0 10 17
- 0.511333 4 0 cbr 1000 ------- 0 4.0 1.0 17 70
- 0.512 4 0 cbr 1000 ------- 0 4.0 1.0 18 71
r 0.512667 0 1 cbr 1000 ------- 0 3.0 1.0 11 18
- 0.512667 4 0 cbr 1000 ------- 0 4.0 1.0 19 72
- 0.513333 4 0 cbr 1000 ------- 0 4.0 1.0 20 73
- 0.514 4 0 cbr 1000 ------- 0 4.0 1.0 21 74
- 0.514667 4 0 cbr 1000 ------- 0 4.0 1.0 22 75
- 0.515333 4 0 cbr 1000 ------- 0 4.0 1.0 23 76
+ 0.52 2 0 cbr 1000 ------- 0 2.0 1.0 21 77
- 0.52 2 0 cbr 1000 ------- 0 2.0 1.0 21 77
+ 0.52 2 0 cbr 1000 ------- 0 2.0 1.0 22 78
+ 0.52 2 0 cbr 1000 ------- 0 2.0 1.0 23 79
+ 0.52 2 0 cbr 1000 ------- 0 2.0 1.0 24 80
+ 0.52 2 0 cbr 1000 ------- 0 2.0 1.0 25 81
+ 0.52 2 0 cbr 1000 ------- 0 2.0 1.0 26 82
+ 0.52 2 0 cbr 1000 ------- 0 2.0 1.0 27 83
r 0.520667 3 0 cbr 1000 ------- 0 3.0 1.0 24 45
+ 0.520667 0 1 cbr 1000 ------- 0 3.0 1.0 24 45
- 0.520667 0 1 cbr 1000 ------- 0 3.0 1.0 24 45
- 0.520667 2 0 cbr 1000 ------- 0 2.0 1.0 22 78
r 0.521333 3 0 cbr 1000 ------- 0 3.0 1.0 25 46
+ 0.521333 0 1 cbr 1000 ------- 0 3.0 1.0 25 46
- 0.521333 2 0 cbr 1000 ------- 0 2.0 1.0 23 79
r 0.522 3 0 cbr 1000 ------- 0 3.0 1.0 26 47
+ 0.522 0 1 cbr 1000 ------- 0 3.0 1.0 26 47
- 0.522 0 1 cbr 1000 ------- 0 3.0 1.0 25 46
- 0.522 2 0 cbr 1000 ------- 0 2.0 1.0 24 80
r 0.522667 3 0 cbr 1000 ------- 0 3.0 1.0 27 48
+ 0.522667 0 1 cbr 1000 ------- 0 3.0 1.0 27 48
- 0.522667 2 0 cbr 1000 ------- 0 2.0 1.0 25 81
- 0.523333 0 1 cbr 1000 ------- 0 3.0 1.0 26 47
- 0.523333 2 0 cbr 1000 ------- 0 2.0 1.0 26 82
- 0.524 2 0 cbr 1000 ------- 0 2.0 1.0 27 83
- 0.524667 0 1 cbr 1000 ------- 0 3.0 1.0 27 48
+ 0.526667 3 0 cbr 1000 ------- 0 3.0 1.0 32 84
- 0.526667 3 0 cbr 1000 ------- 0 3.0 1.0 32 84
+ 0.526667 3 0 cbr 1000 ------- 0 3.0 1.0 33 85
+ 0.526667 3 0 cbr 1000 ------- 0 3.0 1.0 34 86
+ 0.526667 3 0 cbr 1000 ------- 0 3.0 1.0 35 87
- 0.527333 3 0 cbr 1000 ------- 0 3.0 1.0 33 85
- 0.528 3 0 cbr 1000 ------- 0 3.0 1.0 34 86
- 0.528667 3 0 cbr 1000 ------- 0 3.0 1.0 35 87
r 0.542 0 1 cbr 1000 ------- 0 2.0 1.0 7 19
r 0.543333 0 1 cbr 1000 ------- 0 2.0 1.0 8 20
r 0.544667 0 1 cbr 1000 ------- 0 2.0 1.0 9 21
r 0.546 0 1 cbr 1000 ------- 0 2.0 1.0 10 22
r 0.547333 0 1 cbr 1000 ------- 0 2.0 1.0 11 23
r 0.548667 0 1 cbr 1000 ------- 0 2.0 1.0 12 24
r 0.55 0 1 cbr 1000 ------- 0 2.0 1.0 13 25
r 0.562 0 1 cbr 1000 ------- 0 3.0 1.0 12 26
r 0.563333 0 1 cbr 1000 ------- 0 3.0 1.0 13 27
r 0.564667 0 1 cbr 1000 ------- 0 3.0 1.0 14 28
r 0.566 0 1 cbr 1000 ------- 0 3.0 1.0 15 29
r 0.574 3 0 cbr 1000 ------- 0 3.0 1.0 28 49
+ 0.574 0 1 cbr 1000 ------- 0 3.0 1.0 28 49
- 0.574 0 1 cbr 1000 ------- 0 3.0 1.0 28 49
r 0.574667 3 0 cbr 1000 ------- 0 3.0 1.0 29 50
+ 0.574667 0 1 cbr 1000 ------- 0 3.0 1.0 29 50
r 0.575333 3 0 cbr 1000 ------- 0 3.0 1.0 30 51
+ 0.575333 0 1 cbr 1000 ------- 0 3.0 1.0 30 51
- 0.575333 0 1 cbr 1000 ------- 0 3.0 1.0 29 50
r 0.576 3 0 cbr 1000 ------- 0 3.0 1.0 31 52
+ 0.576 0 1 cbr 1000 ------- 0 3.0 1.0 31 52
- 0.576667 0 1 cbr 1000 ------- 0 3.0 1.0 30 51
- 0.578 0 1 cbr 1000 ------- 0 3.0 1.0 31 52
+ 0.58 3 0 cbr 1000 ------- 0 3.0 1.0 36 88
- 0.58 3 0 cbr 1000 ------- 0 3.0 1.0 36 88
+ 0.58 3 0 cbr 1000 ------- 0 3.0 1.0 37 89
+ 0.58 3 0 cbr 1000 ------- 0 3.0 1.0 38 90
+ 0.58 3 0 cbr 1000 ------- 0 3.0 1.0 39 91
- 0.580667 3 0 cbr 1000 ------- 0 3.0 1.0 37 89
- 0.581333 3 0 cbr 1000 ------- 0 3.0 1.0 38 90
- 0.582 3 0 cbr 1000 ------- 0 3.0 1.0 39 91
r 0.600667 4 0 cbr 1000 ------- 0 4.0 1.0 0 53
+ 0.600667 0 1 cbr 1000 ------- 0 4.0 1.0 0 53
- 0.600667 0 1 cbr 1000 ------- 0 4.0 1.0 0 53
r 0.601333 4 0 cbr 1000 ------- 0 4.0 1.0 1 54
+ 0.601333 0 1 cbr 1000 ------- 0 4.0 1.0 1 54
- 0.602 0 1 cbr 1000 ------- 0 4.0 1.0 1 54
r 0.602 4 0 cbr 1000 ------- 0 4.0 1.0 2 55
+ 0.602 0 1 cbr 1000 ------- 0 4.0 1.0 2 55
r 0.602667 4 0 cbr 1000 ------- 0 4.0 1.0 3 56
+ 0.602667 0 1 cbr 1000 ------- 0 4.0 1.0 3 56
- 0.603333 0 1 cbr 1000 ------- 0 4.0 1.0 2 55
r 0.603333 4 0 cbr 1000 ------- 0 4.0 1.0 4 57
+ 0.603333 0 1 cbr 1000 ------- 0 4.0 1.0 4 57
r 0.604 4 0 cbr 1000 ------- 0 4.0 1.0 5 58
+ 0.604 0 1 cbr 1000 ------- 0 4.0 1.0 5 58
- 0.604667 0 1 cbr 1000 ------- 0 4.0 1.0 3 56
r 0.604667 4 0 cbr 1000 ------- 0 4.0 1.0 6 59
+ 0.604667 0 1 cbr 1000 ------- 0 4.0 1.0 6 59
r 0.605333 4 0 cbr 1000 ------- 0 4.0 1.0 7 60
+ 0.605333 0 1 cbr 1000 ------- 0 4.0 1.0 7 60
- 0.606 0 1 cbr 1000 ------- 0 4.0 1.0 4 57
r 0.606 4 0 cbr 1000 ------- 0 4.0 1.0 8 61
+ 0.606 0 1 cbr 1000 ------- 0 4.0 1.0 8 61
r 0.606667 4 0 cbr 1000 ------- 0 4.0 1.0 9 62
+ 0.606667 0 1 cbr 1000 ------- 0 4.0 1.0 9 62
- 0.607333 0 1 cbr 1000 ------- 0 4.0 1.0 5 58
r 0.607333 4 0 cbr 1000 ------- 0 4.0 1.0 10 63
+ 0.607333 0 1 cbr 1000 ------- 0 4.0 1.0 10 63
r 0.608 4 0 cbr 1000 ------- 0 4.0 1.0 11 64
+ 0.608 0 1 cbr 1000 ------- 0 4.0 1.0 11 64
- 0.608667 0 1 cbr 1000 ------- 0 4.0 1.0 6 59
r 0.608667 4 0 cbr 1000 ------- 0 4.0 1.0 12 65
+ 0.608667 0 1 cbr 1000 ------- 0 4.0 1.0 12 65
r 0.609333 4 0 cbr 1000 ------- 0 4.0 1.0 13 66
+ 0.609333 0 1 cbr 1000 ------- 0 4.0 1.0 13 66
- 0.61 0 1 cbr 1000 ------- 0 4.0 1.0 7 60
r 0.61 4 0 cbr 1000 ------- 0 4.0 1.0 14 67
+ 0.61 0 1 cbr 1000 ------- 0 4.0 1.0 14 67
r 0.610667 4 0 cbr 1000 ------- 0 4.0 1.0 15 68
+ 0.610667 0 1 cbr 1000 ------- 0 4.0 1.0 15 68
- 0.611333 0 1 cbr 1000 ------- 0 4.0 1.0 8 61
r 0.611333 4 0 cbr 1000 ------- 0 4.0 1.0 16 69
+ 0.611333 0 1 cbr 1000 ------- 0 4.0 1.0 16 69
r 0.612 4 0 cbr 1000 ------- 0 4.0 1.0 17 70
+ 0.612 0 1 cbr 1000 ------- 0 4.0 1.0 17 70
- 0.612667 0 1 cbr 1000 ------- 0 4.0 1.0 9 62
r 0.612667 4 0 cbr 1000 ------- 0 4.0 1.0 18 71
+ 0.612667 0 1 cbr 1000 ------- 0 4.0 1.0 18 71
r 0.613333 4 0 cbr 1000 ------- 0 4.0 1.0 19 72
+ 0.613333 0 1 cbr 1000 ------- 0 4.0 1.0 19 72
- 0.614 0 1 cbr 1000 ------- 0 4.0 1.0 10 63
r 0.614 4 0 cbr 1000 ------- 0 4.0 1.0 20 73
+ 0.614 0 1 cbr 1000 ------- 0 4.0 1.0 20 73
r 0.614667 4 0 cbr 1000 ------- 0 4.0 1.0 21 74
+ 0.614667 0 1 cbr 1000 ------- 0 4.0 1.0 21 74
- 0.615333 0 1 cbr 1000 ------- 0 4.0 1.0 11 64
r 0.615333 0 1 cbr 1000 ------- 0 3.0 1.0 16 30
r 0.615333 4 0 cbr 1000 ------- 0 4.0 1.0 22 75
+ 0.615333 0 1 cbr 1000 ------- 0 4.0 1.0 22 75
r 0.616 4 0 cbr 1000 ------- 0 4.0 1.0 23 76
+ 0.616 0 1 cbr 1000 ------- 0 4.0 1.0 23 76
- 0.616667 0 1 cbr 1000 ------- 0 4.0 1.0 12 65
r 0.616667 0 1 cbr 1000 ------- 0 3.0 1.0 17 31
- 0.618 0 1 cbr 1000 ------- 0 4.0 1.0 13 66
r 0.618 0 1 cbr 1000 ------- 0 3.0 1.0 18 32
- 0.619333 0 1 cbr 1000 ------- 0 4.0 1.0 14 67
r 0.619333 0 1 cbr 1000 ------- 0 3.0 1.0 19 33
- 0.620667 0 1 cbr 1000 ------- 0 4.0 1.0 15 68
r 0.620667 2 0 cbr 1000 ------- 0 2.0 1.0 21 77
+ 0.620667 0 1 cbr 1000 ------- 0 2.0 1.0 21 77
r 0.621333 2 0 cbr 1000 ------- 0 2.0 1.0 22 78
+ 0.621333 0 1 cbr 1000 ------- 0 2.0 1.0 22 78
- 0.622 0 1 cbr 1000 ------- 0 4.0 1.0 16 69
r 0.622 2 0 cbr 1000 ------- 0 2.0 1.0 23 79
+ 0.622 0 1 cbr 1000 ------- 0 2.0 1.0 23 79
r 0.622667 2 0 cbr 1000 ------- 0 2.0 1.0 24 80
+ 0.622667 0 1 cbr 1000 ------- 0 2.0 1.0 24 80
- 0.623333 0 1 cbr 1000 ------- 0 4.0 1.0 17 70
r 0.623333 2 0 cbr 1000 ------- 0 2.0 1.0 25 81
+ 0.623333 0 1 cbr 1000 ------- 0 2.0 1.0 25 81
r 0.624 2 0 cbr 1000 ------- 0 2.0 1.0 26 82
+ 0.624 0 1 cbr 1000 ------- 0 2.0 1.0 26 82
- 0.624667 0 1 cbr 1000 ------- 0 4.0 1.0 18 71
r 0.624667 2 0 cbr 1000 ------- 0 2.0 1.0 27 83
+ 0.624667 0 1 cbr 1000 ------- 0 2.0 1.0 27 83
- 0.626 0 1 cbr 1000 ------- 0 4.0 1.0 19 72
- 0.627333 0 1 cbr 1000 ------- 0 4.0 1.0 20 73
r 0.627333 3 0 cbr 1000 ------- 0 3.0 1.0 32 84
+ 0.627333 0 1 cbr 1000 ------- 0 3.0 1.0 32 84
r 0.628 3 0 cbr 1000 ------- 0 3.0 1.0 33 85
+ 0.628 0 1 cbr 1000 ------- 0 3.0 1.0 33 85
- 0.628667 0 1 cbr 1000 ------- 0 4.0 1.0 21 74
r 0.628667 3 0 cbr 1000 ------- 0 3.0 1.0 34 86
+ 0.628667 0 1 cbr 1000 ------- 0 3.0 1.0 34 86
r 0.629333 3 0 cbr 1000 ------- 0 3.0 1.0 35 87
+ 0.629333 0 1 cbr 1000 ------- 0 3.0 1.0 35 87
- 0.63 0 1 cbr 1000 ------- 0 4.0 1.0 22 75
- 0.631333 0 1 cbr 1000 ------- 0 4.0 1.0 23 76
- 0.632667 0 1 cbr 1000 ------- 0 2.0 1.0 21 77
+ 0.633333 3 0 cbr 1000 ------- 0 3.0 1.0 40 92
- 0.633333 3 0 cbr 1000 ------- 0 3.0 1.0 40 92
+ 0.633333 3 0 cbr 1000 ------- 0 3.0 1.0 41 93
+ 0.633333 3 0 cbr 1000 ------- 0 3.0 1.0 42 94
+ 0.633333 3 0 cbr 1000 ------- 0 3.0 1.0 43 95
- 0.634 0 1 cbr 1000 ------- 0 2.0 1.0 22 78
- 0.634 3 0 cbr 1000 ------- 0 3.0 1.0 41 93
- 0.634667 3 0 cbr 1000 ------- 0 3.0 1.0 42 94
- 0.635333 0 1 cbr 1000 ------- 0 2.0 1.0 23 79
- 0.635333 3 0 cbr 1000 ------- 0 3.0 1.0 43 95
- 0.636667 0 1 cbr 1000 ------- 0 2.0 1.0 24 80
- 0.638 0 1 cbr 1000 ------- 0 2.0 1.0 25 81
- 0.639333 0 1 cbr 1000 ------- 0 2.0 1.0 26 82
- 0.640667 0 1 cbr 1000 ------- 0 2.0 1.0 27 83
- 0.642 0 1 cbr 1000 ------- 0 3.0 1.0 32 84
- 0.643333 0 1 cbr 1000 ------- 0 3.0 1.0 33 85
- 0.644667 0 1 cbr 1000 ------- 0 3.0 1.0 34 86
- 0.646 0 1 cbr 1000 ------- 0 3.0 1.0 35 87
+ 0.66 2 0 cbr 1000 ------- 0 2.0 1.0 28 96
- 0.66 2 0 cbr 1000 ------- 0 2.0 1.0 28 96
+ 0.66 2 0 cbr 1000 ------- 0 2.0 1.0 29 97
+ 0.66 2 0 cbr 1000 ------- 0 2.0 1.0 30 98
+ 0.66 2 0 cbr 1000 ------- 0 2.0 1.0 31 99
+ 0.66 2 0 cbr 1000 ------- 0 2.0 1.0 32 100
+ 0.66 2 0 cbr 1000 ------- 0 2.0 1.0 33 101
+ 0.66 2 0 cbr 1000 ------- 0 2.0 1.0 34 102
- 0.660667 2 0 cbr 1000 ------- 0 2.0 1.0 29 97
- 0.661333 2 0 cbr 1000 ------- 0 2.0 1.0 30 98
- 0.662 2 0 cbr 1000 ------- 0 2.0 1.0 31 99
- 0.662667 2 0 cbr 1000 ------- 0 2.0 1.0 32 100
- 0.663333 2 0 cbr 1000 ------- 0 2.0 1.0 33 101
- 0.664 2 0 cbr 1000 ------- 0 2.0 1.0 34 102
r 0.668667 0 1 cbr 1000 ------- 0 3.0 1.0 20 34
r 0.67 0 1 cbr 1000 ------- 0 3.0 1.0 21 35
r 0.671333 0 1 cbr 1000 ------- 0 3.0 1.0 22 36
r 0.672667 0 1 cbr 1000 ------- 0 3.0 1.0 23 37
r 0.680667 3 0 cbr 1000 ------- 0 3.0 1.0 36 88
+ 0.680667 0 1 cbr 1000 ------- 0 3.0 1.0 36 88
- 0.680667 0 1 cbr 1000 ------- 0 3.0 1.0 36 88
r 0.681333 3 0 cbr 1000 ------- 0 3.0 1.0 37 89
+ 0.681333 0 1 cbr 1000 ------- 0 3.0 1.0 37 89
r 0.682 0 1 cbr 1000 ------- 0 2.0 1.0 14 38
- 0.682 0 1 cbr 1000 ------- 0 3.0 1.0 37 89
r 0.682 3 0 cbr 1000 ------- 0 3.0 1.0 38 90
+ 0.682 0 1 cbr 1000 ------- 0 3.0 1.0 38 90
r 0.682667 3 0 cbr 1000 ------- 0 3.0 1.0 39 91
+ 0.682667 0 1 cbr 1000 ------- 0 3.0 1.0 39 91
r 0.683333 0 1 cbr 1000 ------- 0 2.0 1.0 15 39
- 0.683333 0 1 cbr 1000 ------- 0 3.0 1.0 38 90
- 0.684667 0 1 cbr 1000 ------- 0 3.0 1.0 39 91
r 0.684667 0 1 cbr 1000 ------- 0 2.0 1.0 16 40
r 0.686 0 1 cbr 1000 ------- 0 2.0 1.0 17 41
+ 0.686667 3 0 cbr 1000 ------- 0 3.0 1.0 44 103
- 0.686667 3 0 cbr 1000 ------- 0 3.0 1.0 44 103
+ 0.686667 3 0 cbr 1000 ------- 0 3.0 1.0 45 104
+ 0.686667 3 0 cbr 1000 ------- 0 3.0 1.0 46 105
+ 0.686667 3 0 cbr 1000 ------- 0 3.0 1.0 47 106
r 0.687333 0 1 cbr 1000 ------- 0 2.0 1.0 18 42
- 0.687333 3 0 cbr 1000 ------- 0 3.0 1.0 45 104
- 0.688 3 0 cbr 1000 ------- 0 3.0 1.0 46 105
r 0.688667 0 1 cbr 1000 ------- 0 2.0 1.0 19 43
- 0.688667 3 0 cbr 1000 ------- 0 3.0 1.0 47 106
r 0.69 0 1 cbr 1000 ------- 0 2.0 1.0 20 44
r 0.722 0 1 cbr 1000 ------- 0 3.0 1.0 24 45
r 0.723333 0 1 cbr 1000 ------- 0 3.0 1.0 25 46
r 0.724667 0 1 cbr 1000 ------- 0 3.0 1.0 26 47
r 0.726 0 1 cbr 1000 ------- 0 3.0 1.0 27 48
r 0.734 3 0 cbr 1000 ------- 0 3.0 1.0 40 92
+ 0.734 0 1 cbr 1000 ------- 0 3.0 1.0 40 92
- 0.734 0 1 cbr 1000 ------- 0 3.0 1.0 40 92
r 0.734667 3 0 cbr 1000 ------- 0 3.0 1.0 41 93
+ 0.734667 0 1 cbr 1000 ------- 0 3.0 1.0 41 93
- 0.735333 0 1 cbr 1000 ------- 0 3.0 1.0 41 93
r 0.735333 3 0 cbr 1000 ------- 0 3.0 1.0 42 94
+ 0.735333 0 1 cbr 1000 ------- 0 3.0 1.0 42 94
r 0.736 3 0 cbr 1000 ------- 0 3.0 1.0 43 95
+ 0.736 0 1 cbr 1000 ------- 0 3.0 1.0 43 95
- 0.736667 0 1 cbr 1000 ------- 0 3.0 1.0 42 94
- 0.738 0 1 cbr 1000 ------- 0 3.0 1.0 43 95
+ 0.74 3 0 cbr 1000 ------- 0 3.0 1.0 48 107
- 0.74 3 0 cbr 1000 ------- 0 3.0 1.0 48 107
+ 0.74 3 0 cbr 1000 ------- 0 3.0 1.0 49 108
+ 0.74 3 0 cbr 1000 ------- 0 3.0 1.0 50 109
+ 0.74 3 0 cbr 1000 ------- 0 3.0 1.0 51 110
- 0.740667 3 0 cbr 1000 ------- 0 3.0 1.0 49 108
- 0.741333 3 0 cbr 1000 ------- 0 3.0 1.0 50 109
- 0.742 3 0 cbr 1000 ------- 0 3.0 1.0 51 110
r 0.760667 2 0 cbr 1000 ------- 0 2.0 1.0 28 96
+ 0.760667 0 1 cbr 1000 ------- 0 2.0 1.0 28 96
- 0.760667 0 1 cbr 1000 ------- 0 2.0 1.0 28 96
r 0.761333 2 0 cbr 1000 ------- 0 2.0 1.0 29 97
+ 0.761333 0 1 cbr 1000 ------- 0 2.0 1.0 29 97
- 0.762 0 1 cbr 1000 ------- 0 2.0 1.0 29 97
r 0.762 2 0 cbr 1000 ------- 0 2.0 1.0 30 98
+ 0.762 0 1 cbr 1000 ------- 0 2.0 1.0 30 98
r 0.762667 2 0 cbr 1000 ------- 0 2.0 1.0 31 99
+ 0.762667 0 1 cbr 1000 ------- 0 2.0 1.0 31 99
- 0.763333 0 1 cbr 1000 ------- 0 2.0 1.0 30 98
r 0.763333 2 0 cbr 1000 ------- 0 2.0 1.0 32 100
+ 0.763333 0 1 cbr 1000 ------- 0 2.0 1.0 32 100
r 0.764 2 0 cbr 1000 ------- 0 2.0 1.0 33 101
+ 0.764 0 1 cbr 1000 ------- 0 2.0 1.0 33 101
- 0.764667 0 1 cbr 1000 ------- 0 2.0 1.0 31 99
r 0.764667 2 0 cbr 1000 ------- 0 2.0 1.0 34 102
+ 0.764667 0 1 cbr 1000 ------- 0 2.0 1.0 34 102
- 0.766 0 1 cbr 1000 ------- 0 2.0 1.0 32 100
- 0.767333 0 1 cbr 1000 ------- 0 2.0 1.0 33 101
- 0.768667 0 1 cbr 1000 ------- 0 2.0 1.0 34 102
r 0.775333 0 1 cbr 1000 ------- 0 3.0 1.0 28 49
r 0.776667 0 1 cbr 1000 ------- 0 3.0 1.0 29 50
r 0.778 0 1 cbr 1000 ------- 0 3.0 1.0 30 51
r 0.779333 0 1 cbr 1000 ------- 0 3.0 1.0 31 52
r 0.787333 3 0 cbr 1000 ------- 0 3.0 1.0 44 103
+ 0.787333 0 1 cbr 1000 ------- 0 3.0 1.0 44 103
- 0.787333 0 1 cbr 1000 ------- 0 3.0 1.0 44 103
r 0.788 3 0 cbr 1000 ------- 0 3.0 1.0 45 104
+ 0.788 0 1 cbr 1000 ------- 0 3.0 1.0 45 104
- 0.788667 0 1 cbr 1000 ------- 0 3.0 1.0 45 104
r 0.788667 3 0 cbr 1000 ------- 0 3.0 1.0 46 105
+ 0.788667 0 1 cbr 1000 ------- 0 3.0 1.0 46 105
r 0.789333 3 0 cbr 1000 ------- 0 3.0 1.0 47 106
+ 0.789333 0 1 cbr 1000 ------- 0 3.0 1.0 47 106
- 0.79 0 1 cbr 1000 ------- 0 3.0 1.0 46 105
- 0.791333 0 1 cbr 1000 ------- 0 3.0 1.0 47 106
+ 0.793333 3 0 cbr 1000 ------- 0 3.0 1.0 52 111
- 0.793333 3 0 cbr 1000 ------- 0 3.0 1.0 52 111
+ 0.793333 3 0 cbr 1000 ------- 0 3.0 1.0 53 112
+ 0.793333 3 0 cbr 1000 ------- 0 3.0 1.0 54 113
+ 0.793333 3 0 cbr 1000 ------- 0 3.0 1.0 55 114
- 0.794 3 0 cbr 1000 ------- 0 3.0 1.0 53 112
- 0.794667 3 0 cbr 1000 ------- 0 3.0 1.0 54 113
- 0.795333 3 0 cbr 1000 ------- 0 3.0 1.0 55 114
+ 0.8 2 0 cbr 1000 ------- 0 2.0 1.0 35 115
- 0.8 2 0 cbr 1000 ------- 0 2.0 1.0 35 115
+ 0.8 2 0 cbr 1000 ------- 0 2.0 1.0 36 116
+ 0.8 2 0 cbr 1000 ------- 0 2.0 1.0 37 117
+ 0.8 2 0 cbr 1000 ------- 0 2.0 1.0 38 118
+ 0.8 2 0 cbr 1000 ------- 0 2.0 1.0 39 119
+ 0.8 2 0 cbr 1000 ------- 0 2.0 1.0 40 120
+ 0.8 2 0 cbr 1000 ------- 0 2.0 1.0 41 121
- 0.800667 2 0 cbr 1000 ------- 0 2.0 1.0 36 116
- 0.801333 2 0 cbr 1000 ------- 0 2.0 1.0 37 117
r 0.802 0 1 cbr 1000 ------- 0 4.0 1.0 0 53
- 0.802 2 0 cbr 1000 ------- 0 2.0 1.0 38 118
- 0.802667 2 0 cbr 1000 ------- 0 2.0 1.0 39 119
r 0.803333 0 1 cbr 1000 ------- 0 4.0 1.0 1 54
- 0.803333 2 0 cbr 1000 ------- 0 2.0 1.0 40 120
- 0.804 2 0 cbr 1000 ------- 0 2.0 1.0 41 121
r 0.804667 0 1 cbr 1000 ------- 0 4.0 1.0 2 55
r 0.806 0 1 cbr 1000 ------- 0 4.0 1.0 3 56
r 0.807333 0 1 cbr 1000 ------- 0 4.0 1.0 4 57
r 0.808667 0 1 cbr 1000 ------- 0 4.0 1.0 5 58
r 0.81 0 1 cbr 1000 ------- 0 4.0 1.0 6 59
r 0.811333 0 1 cbr 1000 ------- 0 4.0 1.0 7 60
r 0.812667 0 1 cbr 1000 ------- 0 4.0 1.0 8 61
r 0.814 0 1 cbr 1000 ------- 0 4.0 1.0 9 62
r 0.815333 0 1 cbr 1000 ------- 0 4.0 1.0 10 63
r 0.816667 0 1 cbr 1000 ------- 0 4.0 1.0 11 64
r 0.818 0 1 cbr 1000 ------- 0 4.0 1.0 12 65
r 0.819333 0 1 cbr 1000 ------- 0 4.0 1.0 13 66
r 0.820667 0 1 cbr 1000 ------- 0 4.0 1.0 14 67
r 0.822 0 1 cbr 1000 ------- 0 4.0 1.0 15 68
r 0.823333 0 1 cbr 1000 ------- 0 4.0 1.0 16 69
r 0.824667 0 1 cbr 1000 ------- 0 4.0 1.0 17 70
r 0.826 0 1 cbr 1000 ------- 0 4.0 1.0 18 71
r 0.827333 0 1 cbr 1000 ------- 0 4.0 1.0 19 72
r 0.828667 0 1 cbr 1000 ------- 0 4.0 1.0 20 73
r 0.83 0 1 cbr 1000 ------- 0 4.0 1.0 21 74
r 0.831333 0 1 cbr 1000 ------- 0 4.0 1.0 22 75
r 0.832667 0 1 cbr 1000 ------- 0 4.0 1.0 23 76
r 0.834 0 1 cbr 1000 ------- 0 2.0 1.0 21 77
r 0.835333 0 1 cbr 1000 ------- 0 2.0 1.0 22 78
r 0.836667 0 1 cbr 1000 ------- 0 2.0 1.0 23 79
r 0.838 0 1 cbr 1000 ------- 0 2.0 1.0 24 80
r 0.839333 0 1 cbr 1000 ------- 0 2.0 1.0 25 81
r 0.840667 0 1 cbr 1000 ------- 0 2.0 1.0 26 82